# vtk DataFile Version 3.0
PolygonMesh@Matlab
ASCII
DATASET POLYDATA
POINTS 5000 double
-24.20643837 -50.25764059 -35.92821532
-27.18929308 -49.13447335 -36.14451437
-30.29664637 -48.40130097 -36.34999508
-33.46141616 -48.065288 -36.55295039
-36.61892568 -48.12249466 -36.765648
-39.71612289 -48.58062169 -36.97887088
-42.68179668 -49.45198666 -37.17564165
-45.51003671 -50.7188555 -37.31864265
-48.16655773 -52.40974469 -37.41831154
-50.56444646 -54.41041093 -37.4846062
-52.67113616 -56.56404228 -37.52825636
-54.46292449 -58.79357985 -37.54861692
-55.93166426 -61.10260346 -37.54615154
-57.06645637 -63.62322826 -37.54164089
-57.87017793 -66.30897829 -37.49908667
-58.35227544 -69.11963986 -37.40959575
-58.56587077 -71.9757083 -37.23626782
-58.37518585 -74.94354186 -37.02263595
-57.82683556 -77.93318835 -36.75360236
-56.84466654 -80.89981988 -36.43972053
-55.36635407 -83.74307054 -36.07848983
-53.44333172 -86.32810834 -35.72036438
-51.30029814 -88.62101278 -35.3851207
-48.8945483 -90.56724166 -35.07463427
-46.28853221 -92.1872863 -34.77854504
-43.51253045 -93.49710286 -34.46952329
-40.57958608 -94.50212757 -34.15433481
-37.57497735 -95.23399134 -33.86300275
-34.55856299 -95.72509363 -33.6268174
-31.51437179 -95.90694386 -33.44460517
-28.50348014 -95.75917222 -33.27207513
-25.56616309 -95.18382318 -33.11245261
-22.78561248 -94.12404638 -32.98051028
-20.20857376 -92.60484803 -32.90543963
-17.88183292 -90.73957087 -32.86619413
-15.80487918 -88.59564416 -32.87724395
-14.00636545 -86.19861343 -32.93191908
-12.54434828 -83.61462272 -33.00877806
-11.5542192 -80.71936106 -33.13670128
-10.96148487 -77.88040263 -33.25962869
-10.66440849 -74.98113327 -33.39644528
-10.58116966 -72.11151435 -33.5596291
-10.81857766 -69.15938558 -33.78255236
-11.36260755 -66.21837193 -34.05984035
-12.2516377 -63.33445828 -34.37259263
-13.54719074 -60.5812189 -34.70312236
-15.11733139 -58.02400488 -35.0070008
-16.96019331 -55.69695163 -35.27087854
-19.06281298 -53.60318023 -35.49785143
-21.46554149 -51.76309366 -35.71156924
-24.17072321 -49.98119504 -34.43621338
-27.1151588 -48.80932343 -34.57513549
-30.19096714 -48.02015031 -34.66369596
-33.32261954 -47.61902589 -34.7331726
-36.45991823 -47.6004408 -34.80247769
-39.55513668 -47.9611915 -34.86804546
-42.56139428 -48.71557931 -34.90774172
-45.43456986 -49.86679328 -34.9091471
-48.12209977 -51.38201521 -34.87043069
-50.57060286 -53.17831814 -34.79712172
-52.74924269 -55.16748827 -34.70542241
-54.6329737 -57.31454475 -34.5961859
-56.19486211 -59.64640206 -34.47196669
-57.41426129 -62.17179112 -34.33552015
-58.30456463 -64.85802672 -34.1816892
-58.88910991 -67.66360303 -33.98955423
-59.14187932 -70.5598897 -33.74377333
-59.00933996 -73.52462738 -33.45237839
-58.46501855 -76.50925236 -33.1216523
-57.49217431 -79.45607906 -32.75373488
-56.09033761 -82.2822651 -32.37636697
-54.29524585 -84.88279606 -32.00482927
-52.16857935 -87.20109144 -31.66277401
-49.76697178 -89.19732575 -31.35222837
-47.15016124 -90.87446759 -31.07071997
-44.36459629 -92.23843332 -30.80737462
-41.46040075 -93.31585663 -30.56728356
-38.48640393 -94.13013875 -30.36288311
-35.48327089 -94.68744723 -30.21438416
-32.45697745 -94.95423036 -30.11465885
-29.43853587 -94.89130023 -30.04508971
-26.47137893 -94.43810115 -30.00293453
-23.63533556 -93.53984268 -29.9956455
-21.00590838 -92.19619696 -30.04349611
-18.6144336 -90.46426153 -30.1330731
-16.46992686 -88.42282908 -30.25798187
-14.60105793 -86.11591544 -30.40969128
-13.08439425 -83.54916098 -30.59975227
-11.99449436 -80.74978801 -30.82254535
-11.3363061 -77.8204597 -31.07455625
-11.01184373 -74.87408175 -31.346707
-10.9491779 -71.93381688 -31.63666704
-11.15946773 -68.98822077 -31.95825218
-11.68348739 -66.05682071 -32.30717096
-12.53081399 -63.18390362 -32.67983637
-13.70636863 -60.43521093 -33.05947567
-15.20248964 -57.85913722 -33.417802
-17.0001973 -55.50409681 -33.72977101
-19.08291011 -53.38267995 -33.99549985
-21.47479417 -51.5217198 -34.23235428
-24.10793935 -49.64740896 -32.90649169
-27.02928637 -48.42167842 -32.9708516
-30.07145759 -47.56537871 -32.94800004
-33.17908999 -47.08733911 -32.89230794
-36.30238082 -46.98226693 -32.82164594
-39.4023248 -47.24956165 -32.73675734
-42.43097296 -47.89783788 -32.62270929
-45.3363497 -48.93145929 -32.47653459
-48.06077813 -50.31450279 -32.29705466
-50.56079175 -51.97352729 -32.09021418
-52.807554 -53.85636669 -31.8672129
-54.77493158 -55.9451215 -31.63258153
-56.42354141 -58.25271092 -31.38410999
-57.7285275 -60.76774612 -31.12713497
-58.69869431 -63.44963343 -30.8587244
-59.34591912 -66.27054364 -30.56365496
-59.64074463 -69.19681171 -30.23320205
-59.54340363 -72.17978982 -29.87160585
-59.03483621 -75.1718744 -29.49028495
-58.11262048 -78.11955232 -29.09109578
-56.78367313 -80.94758011 -28.69231804
-55.05063148 -83.5753567 -28.31256681
-52.95072384 -85.93508306 -27.96596419
-50.55983148 -87.98841766 -27.66116808
-47.94406317 -89.7265724 -27.40533771
-45.14982232 -91.15214251 -27.18586684
-42.25139039 -92.29023518 -27.00216122
-39.28777358 -93.17192139 -26.86881195
-36.29060617 -93.80323078 -26.79471289
-33.27075562 -94.16554335 -26.77513963
-30.24699683 -94.20894498 -26.79909437
-27.25582879 -93.86833808 -26.86059581
-24.37344686 -93.09276631 -26.96569698
-21.67560427 -91.87076802 -27.12381739
-19.22135342 -90.24232727 -27.32828807
-17.01619601 -88.27377878 -27.56599808
-15.07966479 -86.02562963 -27.83102979
-13.48594969 -83.50652293 -28.1248056
-12.31845514 -80.73186829 -28.45980271
-11.59961255 -77.78792454 -28.83122964
-11.24130916 -74.79518872 -29.22955249
-11.16008343 -71.81588288 -29.64182276
-11.35266963 -68.84553365 -30.06392067
-11.85660668 -65.90370691 -30.49668649
-12.67097704 -63.03157101 -30.93175906
-13.78884289 -60.27282152 -31.36951119
-15.23046263 -57.67247989 -31.78482917
-16.99022389 -55.27989594 -32.14622513
-19.05353159 -53.11873719 -32.45263315
-21.43025504 -51.22896928 -32.71508847
-23.98100876 -49.25993443 -31.34393199
-26.88280499 -47.98484551 -31.33978899
-29.89806557 -47.05792408 -31.2167292
-32.98632867 -46.50095656 -31.04350873
-36.10177923 -46.31634421 -30.83650124
-39.20774248 -46.51038665 -30.60358852
-42.25348665 -47.08620381 -30.33946464
-45.17538429 -48.02269611 -30.04468291
-47.92962809 -49.28844342 -29.72388846
-50.4778988 -50.83930024 -29.3838283
-52.79040651 -52.63006602 -29.03293603
-54.83368791 -54.65421613 -28.67100558
-56.56721307 -56.92961365 -28.29698083
-57.94402601 -59.43664119 -27.91142412
-58.96609895 -62.13923946 -27.52133912
-59.64922916 -64.97864671 -27.11390585
-59.97772146 -67.9210118 -26.69433505
-59.91329207 -70.92174779 -26.26182782
-59.44528392 -73.92615758 -25.82058439
-58.59216753 -76.87927955 -25.39183424
-57.34091615 -79.72254758 -24.97843245
-55.691515 -82.38681388 -24.59959744
-53.64414026 -84.80105278 -24.26283511
-51.28988557 -86.92209465 -23.98634038
-48.70582382 -88.73216892 -23.77625856
-45.92272894 -90.23040535 -23.61084247
-43.01112159 -91.42226943 -23.48702362
-40.03182948 -92.34144677 -23.40364697
-37.01956933 -93.01839505 -23.38578399
-34.00425565 -93.44545901 -23.43606533
-30.97542735 -93.56736718 -23.53947286
-27.96655174 -93.31376216 -23.68969324
-25.04218429 -92.63453198 -23.89251767
-22.2863387 -91.50800734 -24.15244037
-19.76531291 -89.95274322 -24.46886231
-17.51107556 -88.03377656 -24.82503033
-15.53823696 -85.81302597 -25.2072422
-13.88897536 -83.31787103 -25.61801896
-12.64590667 -80.57365247 -26.06826072
-11.8422579 -77.64115035 -26.55443313
-11.42608948 -74.63842822 -27.06733736
-11.29620615 -71.6421518 -27.59217277
-11.43758183 -68.66585024 -28.10810264
-11.89295456 -65.72352123 -28.62275893
-12.67102796 -62.84378011 -29.12913539
-13.75917126 -60.06761769 -29.62751798
-15.17215366 -57.44287745 -30.09993202
-16.90670077 -55.00901581 -30.51542037
-18.95319401 -52.80846248 -30.8707733
-21.3198609 -50.88064216 -31.16244575
-23.7642657 -48.81142817 -29.77364873
-26.64959293 -47.49200324 -29.69988723
-29.65635135 -46.51112496 -29.48182487
-32.73428517 -45.89271519 -29.19403529
-35.84804708 -45.65487591 -28.86046365
-38.95877705 -45.79818244 -28.48481141
-42.00878721 -46.31040509 -28.07665079
-44.94490353 -47.16853587 -27.63680565
-47.72490106 -48.34542969 -27.1781018
-50.30807454 -49.80241736 -26.70499449
-52.6732687 -51.51490823 -26.21789194
-54.78122007 -53.4820193 -25.71907538
-56.58836577 -55.71354508 -25.2058561
-58.04542781 -58.18804466 -24.69063033
-59.13488071 -60.87073237 -24.17363208
-59.86899506 -63.7148372 -23.65921658
-60.22159377 -66.67492655 -23.14110331
-60.19116948 -69.68463167 -22.63329976
-59.76360118 -72.695924 -22.14375648
-58.95069437 -75.66764702 -21.67002702
-57.78077759 -78.52880675 -21.23571554
-56.21849331 -81.23131838 -20.85108247
-54.25385218 -83.70552972 -20.52838735
-51.95339613 -85.89944757 -20.27969287
-49.41672558 -87.78104941 -20.11675096
-46.66722204 -89.35008916 -20.01341054
-43.75616037 -90.59957133 -19.95196694
-40.76267012 -91.56816743 -19.93676362
-37.73933594 -92.28570595 -19.98233438
-34.69574327 -92.73350868 -20.09047315
-31.64638215 -92.87808388 -20.2579384
-28.6197617 -92.6587847 -20.48370617
-25.66131438 -92.02851382 -20.77740152
-22.85763272 -90.96207326 -21.14038563
-20.27609225 -89.45726938 -21.56951355
-17.97976826 -87.57021118 -22.04853358
-15.97980285 -85.37244793 -22.55965949
-14.29225198 -82.90557211 -23.10247135
-12.9773219 -80.20326767 -23.67467677
-12.08527528 -77.3160099 -24.27900593
-11.57691693 -74.3429338 -24.89734421
-11.37390699 -71.3612031 -25.51170381
-11.44965097 -68.39714414 -26.11653871
-11.84373455 -65.46113215 -26.7080038
-12.55976299 -62.57888096 -27.28771956
-13.60961208 -59.78992226 -27.85266662
-15.00262327 -57.13942645 -28.38324101
-16.72792442 -54.67188412 -28.86336464
-18.76362108 -52.43388139 -29.27339626
-21.11948929 -50.4698034 -29.59789003
-23.49412169 -48.31673891 -28.20277365
-26.36934332 -46.96495336 -28.06504391
-29.36644195 -45.95165429 -27.7501731
-32.44098439 -45.2927072 -27.34887344
-35.55295652 -45.01771735 -26.89190426
-38.66527737 -45.12464599 -26.38790975
[...]
POINT_DATA 5000
FIELD FieldData 4
S11 1 5000 double
517.624
534.7145
557.1495
566.01025
557.885
542.013
526.805
514.812
501.06825
469.0825
413.899
363.2575
346.401
346.3735
337.3555
317.47625
303.6525
298.26525
289.42975
275.77925
257.21575
247.72075
242.895
238.96625
245.70575
258.4685
264.99625
247.37475
208.14875
169.62825
145.57875
139.81
148.31175
160.8775
169.26475
172.83975
175.0865
175.168
179.63575
202.00125
241.7615
283.497
316.7055
356.4305
409.45775
455.32075
482.99575
501.37775
512.76575
514.52975
489.311375
495.95
503.6175
502.388875
489.804125
470.96
452.38725
436.7685
421.218
396.343
359.716
326.87225
311.868125
308.039375
304.09625
296.855125
291.164125
289.7765
289.088875
286.97075
281.654875
275.852875
269.807375
262.89575
258.83675
257.867125
255.972875
247.17775
230.513375
211.8255
198.444625
195.493875
200.432875
204.92975
204.96325
203.14575
202.858125
204.49325
210.0575
227.29075
256.8815
290.946625
327.606
370.184
417.683625
457.30525
480.221625
491.88675
494.959375
490.946
440.76175
431.119
420.506875
407.219
390.50975
370.782
350.840625
333.255875
317.332375
301.225375
285.28375
272.32575
262.6665
257.043875
257.18875
261.41325
265.764875
270.37625
277.65375
287.110125
296.478875
300.46575
298.50225
291.787625
279.83575
266.374625
256.366125
252.469625
253.254125
254.62025
255.06025
256.508875
257.980125
254.873625
247.197
240.424875
238.313
241.681875
249.326125
262.560125
283.647125
310.5615
345.87325
385.227375
420.6555
448.38775
464.15975
468.138625
462.473875
451.679125
403.62475
389.438625
375.520125
361.0395
345.833875
330.4925
315.351
301.235875
287.99725
274.63725
261.817625
251.80825
245.75725
242.55825
242.20775
245.05475
250.35775
256.518
263.009125
270.449375
278.643875
286.1235
289.83325
289.348
284.742625
277.211
270.3955
264.558125
260.042875
258.07675
256.953125
256.998625
257.6565
255.353
250.443625
247.211625
248.6945
255.195
266.792
282.946125
304.14075
328.12525
353.80925
380.900125
404.505375
421.83025
431.719
433.58375
428.141
417.29625
369.441375
359.507125
350.263
339.611625
327.989
316.889125
306.46375
296.104
285.908625
275.40725
265.267
257.152125
251.44725
247.825125
246.42775
247.38325
249.9895
253.594
257.493625
261.049125
264.268875
266.934375
269.1675
271.402625
273.054375
273.9285
274.211
272.96775
269.38675
264.265875
259.394875
256.968875
256.39525
254.952
253.4505
254.993625
261.14775
271.453875
284.976375
300.697
317.641625
334.256625
350.10975
364.853875
377.03675
385.524625
389.879625
390.418375
387.051375
379.7225
340.154375
336.1495
334.359
329.933625
323.151875
315.614875
307.891625
300.7345
294.27375
288.068875
282.3105
277.288625
272.31175
266.587125
261.115375
257.373125
255.353625
254.545
254.52475
254.782125
254.93725
254.817375
254.5885
255.69075
258.718625
263.49225
268.88025
271.75075
270.964625
268.25525
265.985625
265.54375
267.058375
269.520125
272.02925
275.842625
282.647125
291.751
301.4505
311.461
322.04275
331.322375
338.129625
342.694875
345.539125
347.41675
348.39325
348.4855
347.534125
345.223875
323.911875
324.82025
326.989
326.2905
322.094875
316.81675
311.05525
305.8935
302.114
299.527875
297.489875
294.7995
290.0385
282.6805
274.0895
266.333375
260.473
256.528375
253.943375
252.455125
251.814875
251.396375
250.924125
251.031375
252.65775
256.189
260.96875
264.598
265.75525
266.05775
267.1415
270.074625
275.639625
283.05825
289.75325
294.999375
300.375
305.894125
310.55525
314.635625
319.285375
323.483125
324.9935
324.0335
322.353375
320.978
320.32425
320.453875
321.3615
323.073875
322.66825
325.0495
327.116125
326.115125
321.57225
316.759875
312.130625
307.3395
303.313125
300.1
297.096125
293.373375
288.1255
281.1265
273.357
266.168625
260.54375
256.554375
253.924875
252.75425
252.87175
253.27925
253.214125
253.283125
253.854625
255.075
256.9005
258.3055
258.842875
259.670125
262.21525
267.05725
274.066125
282.52325
290.60125
297.164375
302.59425
306.97925
310.11225
312.40125
314.872875
317.1855
317.521
315.585
313.26375
311.887875
311.7045
312.81825
315.1905
319.117125
332.982625
332.946375
331.689875
327.907125
321.38625
315.60975
310.19725
303.878
297.261
290.564625
284.376875
279.035375
274.053875
268.699875
263.26725
258.722125
255.3855
253.072
251.69225
251.329
252.300375
253.57475
254.062125
254.810875
255.839
256.34575
256.381125
255.708875
254.357375
253.36025
254.0325
257.096
262.340125
269.148625
276.691625
283.943
290.6915
296.884375
302.21025
306.621125
310.56875
313.937625
315.575125
315.521375
315.47475
316.540125
318.719875
321.845
325.515
329.95025
348.901875
344.15175
337.249375
329.036
320.14025
312.613125
305.5945
297.504875
288.959125
280.6595
273.688125
268.281375
263.895125
259.8005
255.9025
252.669
250.463625
248.978125
247.998875
247.73025
248.2925
249.402625
250.3425
252.150875
254.74625
256.4305
256.663
255.50125
253.56825
251.03775
248.7625
248.123125
249.8075
253.949125
259.99825
267.36775
275.778
284.654125
292.94575
299.852625
305.975625
311.70925
315.983
318.72225
321.83175
326.50575
332.44975
338.950625
344.432
348.587875
365.54675
354.650125
342.0185
329.46625
318.203
309.378375
301.497375
293.17675
284.91925
277.454875
271.333375
266.203625
261.585125
257.28925
253.704375
250.87325
248.479125
246.216
244.46325
243.838
243.84825
243.85925
244.2445
246.426375
250.242125
254.083875
256.915375
257.1055
255.911125
254.556875
251.938375
249.184
247.9945
249.1185
252.771
258.925875
267.355875
277.437375
287.564875
296.0385
303.148
310.089625
316.50775
321.774625
327.516375
335.506
345.4745
355.80125
363.77675
368.505375
377.781875
360.529625
343.145875
328.803375
316.91625
308.239625
300.78275
293.404375
286.303
279.730375
274.16675
269.474875
264.737625
259.646625
255.33525
251.960625
248.653125
244.631
241.070625
239.64925
239.110875
238.02575
237.543375
239.315
243.5105
248.94575
254.469875
258.454
259.791375
260.364
260.644
259.865
259.179125
259.470125
261.25875
265.111625
271.253625
279.418875
288.319125
296.36025
303.502625
310.669
317.730375
324.3885
331.643625
341.343
353.69425
366.61125
376.869875
383.002625
378.729375
357.851
338.742375
326.203625
316.714
309.15025
302.417625
296.173125
290.118125
283.960875
278.828
275.245125
271.380625
266.017
260.52225
255.631
250.867875
245.36825
240.23075
237.55925
235.926125
233.757125
232.8245
234.357
238.288875
244.0445
250.24275
256.7305
261.88875
264.8095
267.563125
270.647
273.591125
276.721375
280.068625
283.435125
287.22975
292.01675
297.437375
302.665375
308.31275
314.1455
320.409
327.386875
334.567875
343.612125
355.514
368.444625
378.958
385.44075
368.395
348.727125
332.549875
323.530625
316.939
310.595125
304.385125
298.768375
293.465
287.918
283.340625
280.673375
277.48175
271.68
264.81675
258.564
252.894125
247.7395
243.729625
241.59125
239.98275
237.233875
236.103
237.822125
241.051875
245.724625
251.158375
257.067625
263.124625
267.88825
271.37775
275.61975
280.84875
286.9475
293.851375
300.222
305.704375
310.554625
314.188625
316.08575
317.54475
320.116
324.837875
330.595375
336.148625
342.71275
351.681125
361.747625
369.71825
375.19375
354.824875
338.260875
326.087
321.195125
317.251
311.564875
305.3655
299.65275
294.419125
289.3015
284.62
281.346625
277.48225
270.8465
263.229
256.65475
251.278125
247.841125
247.261125
248.8225
249.9125
248.700875
248.068375
250.3105
253.76925
257.309625
260.91325
264.78225
268.854625
272.496625
275.466125
278.181625
281.580625
286.7845
294.276625
303.246
312.630875
321.53175
327.653
328.906125
327.22625
326.93325
329.107625
332.3845
336.109125
339.988375
345.288125
351.314625
355.673875
359.991
345.65925
330.703625
320.67875
319.460875
318.061625
312.513125
305.282875
298.82125
293.104375
287.415
281.444875
276.035875
270.552875
263.358
256.023375
250.424375
246.04825
243.486
245.202375
250.4235
255.036625
257.341875
259.448375
263.069625
267.66275
271.986375
275.171
277.376625
279.43425
280.996
282.066
282.720625
283.043625
284.667625
288.965625
296.127
305.6415
316.603625
325.852
329.89025
329.7205
329.05125
329.655875
331.7805
334.842
337.297625
340.191625
343.459375
345.48475
349.265125
341.71225
327.646375
318.993625
319.91725
319.788125
313.99575
305.294625
297.0985
290.45525
283.839625
276.14475
268.8615
262.33225
255.113125
248.45475
243.923625
240.260625
237.285875
237.98275
242.95625
248.569875
253.182875
258.557625
265.023625
271.715125
278.082
283.48725
287.310625
289.502125
290.656875
290.8875
290.4895
289.247
287.853625
288.076125
290.742875
296.228625
304.2705
312.917
319.128
322.1795
324.0285
326.365375
329.709
333.550625
336.09975
338.322375
340.57725
341.586875
344.819125
340.334875
328.58625
322.77725
324.514
322.68325
315.152125
305.134125
295.260875
287.06425
279.721875
271.659
264.14075
257.899125
251.257625
245.029125
240.600625
236.60275
232.739
231.117875
232.773625
235.7645
239.184875
245.28825
253.869125
262.6035
271.019
279.141625
286.42175
291.712
295.425
297.819125
298.411125
297.754375
296.10675
294.029375
292.741875
293.4265
296.496875
301.38575
306.282125
310.652375
315.522625
321.261125
327.501875
333.3575
337.026375
339.452125
341.323875
341.445375
343.315125
345.781375
337.77125
333.96475
333.152
326.470375
315.606375
304.32025
293.74175
284.558875
276.384
268.693125
262.106625
256.641375
250.812375
245.25225
240.800625
235.812
230.82875
227.946
226.863125
226.448125
227.044
231.12975
238.698125
247.5355
256.80625
265.972
275.00775
283.597875
290.7955
296.52825
300.573125
302.748125
302.758375
300.776
298.356
296.634375
296.16575
296.854
298.67775
302.129625
308.12375
316.727125
326.409875
335.114375
340.78625
344.222375
346.435625
346.267125
347.42
366.2235
359.285375
351.67375
343.127125
329.781875
315.849625
303.850375
293.321
284.410625
276.420875
268.91175
262.535875
257.256375
251.908625
247.244625
243.4785
238.142
232.1895
228.75725
226.735625
224.533125
222.9895
224.196875
228.884375
235.620875
243.290625
251.488
259.89925
268.871875
277.775
286.37575
294.187125
299.779875
302.917375
303.054875
301.343125
299.658
299.011375
298.737375
298.786375
300.762125
306.219125
316.0285
328.376
340.220375
349.221125
355.902625
360.901
362.716375
365.54525
402.403
389.53025
370.237
350.914
331.720625
316.09875
304.4495
294.538375
286.38425
279.43675
272.786875
266.81125
261.24775
255.546
251.046875
247.661375
242.981375
237.28275
232.85975
229.3485
225.688375
222.873125
221.872625
223.25075
226.81075
231.8195
238.230375
245.5285
253.47075
262.016125
271.4215
281.4445
290.466875
297.589625
300.967375
300.69275
299.999375
301.19675
303.566125
305.4915
308.011
313.103125
322.558625
335.781875
350.02075
363.48225
376.44725
387.647
394.214
400.777375
440.558625
415.659
381.935125
354.036125
332.284375
316.476875
304.901125
295.785125
288.446625
282.195875
276.5385
271.350875
265.4805
258.798375
253.451
249.715625
245.59625
241.072625
236.071375
229.877
223.788
219.087
215.915125
214.542
215.54175
218.90275
224.165375
230.98025
238.891375
247.343
256.335125
267.2995
279.040625
289.300375
296.253625
297.9535
298.038125
301.82825
308.502125
315.4245
322.140875
328.577125
337.032375
349.325875
364.35225
381.15025
400.4295
418.57125
430.49925
440.935875
457.433375
421.620375
378.880625
349.686875
328.9615
314.04325
303.039625
294.69475
288.19725
282.451875
276.563625
270.24925
263.059125
255.34775
248.838375
243.71325
238.92025
234.898125
230.845375
224.15525
215.889125
208.386
202.752625
199.47375
198.53875
200.64325
205.355625
212.444
221.781875
232.376125
242.8085
253.64
266.24475
278.599625
288.640625
293.352375
295.00425
301.16875
311.976875
324.46475
336.73775
346.32225
354.547125
365.089375
378.801875
395.64775
416.364
435.743625
449.0005
460.971
440.150625
402.887375
361.298375
335.976625
318.145875
305.142
296.141875
289.652
284.596625
279.4995
272.961875
264.773375
255.23325
245.86175
237.845875
230.22825
223.2005
218.2865
214.235625
208.803375
201.4155
193.64975
187.499875
182.575125
179.276875
179.122625
182.343
189.32
199.66775
212.26775
225.5865
237.76375
250.586875
263.775375
275.38225
283.14975
288.032
296.941125
311.46
328.557625
345.126875
357.56425
365.78925
373.757625
383.985875
397.168625
412.4105
425.247125
434.442
444.844375
391.916625
361.094
329.085
310.8865
298.62825
289.22825
283.683125
280.595875
277.543
273.95625
268.283375
259.744625
248.790875
237.417375
226.5275
214.703625
203.828125
197.095125
192.392875
188.252
184.874625
180.375125
175.543625
171.077625
166.499125
163.61075
164.27675
169.31625
178.30625
190.129875
203.36925
217.307125
231.582
245.32775
257.715125
267.026375
274.3835
285.597625
303.191125
323.795875
343.1565
356.86875
364.24725
368.805125
372.759
378.273125
384.70625
389.056125
392.3455
398.0935
335.26875
312.96325
292.897625
284.149375
278.628875
273.1205
270.507375
269.395875
267.949875
266.582375
263.320875
256.7715
246.5965
234.347
220.488375
204.55375
190.462875
181.76375
176.41275
173.09275
172.58425
172.4465
170.371
167.774625
164.512
160.835
159.2305
160.817
166.302125
175.273625
185.83175
198.295125
213.114125
227.511625
240.248
250.531
258.62225
269.708125
286.77275
307.8525
326.368625
337.79775
342.251125
343.381
343.529375
343.51575
343.966625
342.883375
341.52425
342.3995
292.219125
277.21275
266.333875
265.063625
264.359125
261.470125
259.317375
257.98825
257.531375
258.222875
258.0845
255.08225
248.049375
237.391875
223.403125
207.410875
192.76375
182.39925
175.230125
170.74875
169.749625
171.229125
172.756
172.361
170.68275
167.975375
165.500625
164.9725
167.7265
173.752125
181.22875
188.979
199.9965
213.744375
226.658675
237.574175
245.964375
255.645
269.87425
286.75075
300.287
306.845375
308.477875
309.395375
309.44925
307.98825
305.949125
302.596
298.840875
297.634875
265.4635
254.485125
249.053625
252.128
254.283375
252.81625
249.8525
247.93225
248.19775
250.04
252.400375
253.492125
251.50475
245.56175
235.40325
221.549375
207.957
198.640625
190.8835
183.89975
180.445
180.009125
181.513
182.631375
181.624875
179.012625
176.613625
176.171875
177.771375
180.578625
183.63425
186.805625
193.357125
205.5418625
219.55395
231.6557125
240.691
248.63475
259.269875
270.3595
278.705625
282.209625
282.892125
284.25375
283.961875
281.347375
277.729
273.8265
269.77075
268.9495
251.323
241.85925
239.65425
245.228875
248.016125
246.2
243.3295
241.707
241.082125
242.037625
245.018375
249.235125
253.140625
254.665
251.77225
242.28325
230.79625
223.26775
216.462
208.5985
202.616875
199.883
198.803125
197.627875
194.914375
190.7215
187.073
185.568
185.512375
185.10145
184.4577
185.962625
193.0775
206.3134875
221.991775
235.9114125
244.468375
248.658
253.921375
260.269
265.27475
267.339875
266.60075
265.558
264.573875
262.305
258.977
255.6565
252.90575
253.805
245.970875
237.732625
237.379875
243.509875
244.98975
241.673375
238.2585
235.662875
233.39475
232.868625
234.906125
239.885125
247.687
256.385125
262.43925
262.378
256.899
251.359875
245.60875
238.29225
232.196375
227.537375
223.89725
219.655
212.8495
204.87175
198.361875
194.888
192.879875
190.2527
188.24795
191.14075
202.18475
218.819875
235.72725
248.307125
252.654625
250.337375
248.962375
251.066375
253.22225
253.0705
251.025
249.0055
247.801
247.166125
246.197
244.909125
244.699125
247.66475
245.26275
238.326
238.779125
243.9725
243.385125
237.8115
231.97775
227.15475
223.655
221.888375
222.6515
227.097625
235.669125
247.066625
259.020625
269.41925
275.22975
276.7145
274.819875
269.57825
264.82525
261.13225
255.658
248.95875
240.846875
230.410875
221.635375
217.62525
214.62075
210.25275
208.526125
213.368125
225.680375
241.05575
252.91575
258.047875
255.66475
247.67675
240.56175
238.335625
238.01075
236.328375
234.095625
232.937
233.28325
235.432375
237.522
239.084125
241.76075
246.38275
246.98625
241.145375
241.144875
243.5575
239.791625
231.77375
224.106875
217.974125
213.3795
210.694125
211.051
215.477625
224.086125
235.13375
247.682
262.55
277.167
288.063125
293.83225
294.228
292.4495
291.438125
289.53725
284.68075
278.9295
273.371875
267.016375
264.32975
260.045125
250.721875
246.429375
249.896125
255.8905
259.820125
260.327625
256.575125
249.2175
239.114
229.358625
224.134
223.072
222.35375
221.2005
220.900375
222.933375
228.058
232.917875
236.830375
241.804125
247.535125
249.539875
244.5215
243.092125
241.526125
234.574875
225.254125
216.87425
210.279875
205.6255
203.34825
204.333875
209.250625
217.720875
228.046125
239.2155
252.499
267.494125
281.539875
291.93175
297.721625
300.91875
303.230375
306.424625
310.3375
313.447875
317.731375
321.56375
320.877125
308.534125
290.982375
280.294875
274.59175
269.623375
262.55575
255.0685
247.137875
238.240375
228.517375
218.915875
213.4595
213.7645125
215.2694125
214.81215
214.459375
217.82225
225.0535
231.48675
236.854375
243.362125
249.637875
251.0755
245.762
242.412125
238.374375
230.2595
220.891875
213.50075
208.33625
204.747
203.167
204.274
208.582875
215.464
223.589
232.532625
242.23075
252.209875
261.61475
269.7015
276.034625
281.688
287.582375
293.90125
304.17775
317.0615
329.186625
338.939
339.712125
324.236375
303.16375
288.634375
276.62775
264.77625
254.307875
246.184375
238.546375
230.019125
220.606125
211.48975
207.555125
210.945275
215.0511375
214.3108625
212.792625
216.933875
225.5525
232.639625
238.577
245.775875
251.68975
251.16
245.299375
240.521375
235.395
227.966625
220.62275
215.471375
212.05925
209.58225
208.495
208.71075
210.487625
213.80375
217.725375
222.13125
226.401125
229.404625
231.456
234.12875
238.293375
244.05575
250.993625
258.983375
269.404375
281.945
295.10575
305.6705
308.596875
302.30825
289.9685
277.94325
267.6075
256.541625
247.192875
240.842125
234.823125
227.70725
219.19575
210.384875
207.596625
214.0354875
220.95405
219.7586875
215.974
219.3285
228.04875
234.7645
240.441375
247.64225
252.654125
248.357125
242.59475
238.0875
233.718625
228.535125
224.076625
220.84725
218.554625
216.775375
215.45
214.465
213.282875
212.082125
210.5225
207.858625
204.3105
200.339125
196.67175
195.367375
197.746125
203.053125
209.734875
216.632125
223.95525
231.95625
241.61475
252.618125
259.251
261.81775
262.616375
259.687
253.962
248.12375
242.790375
238.081125
234.1235
229.13275
222.456125
215.373625
214.30275
222.92685
231.7105375
229.5889375
222.391375
222.941625
230.251625
235.6015
240.227375
246.929625
250.8625
244.67575
240.022125
236.716375
233.967375
231.66575
229.618625
227.1775
225.745625
224.671125
222.597875
219.86025
215.79525
210.39425
203.58825
194.637375
185.175
177.26975
171.307
168.434375
169.41975
173.220375
178.54525
183.637375
187.715875
191.915875
197.20775
204.094
211.393875
217.82625
224.332
229.844875
232.4805
233.53875
233.0795
231.931
231.602625
229.71975
224.880375
219.788125
220.9965
231.02525
240.3475875
237.8045875
228.369625
225.65875
230.642625
234.357625
237.64275
243.8575
247.248875
242.52625
239.006625
236.751125
235.446375
234.776625
234.33975
233.034125
231.937
230.334375
226.703625
221.856375
215.716
207.796
198.534625
189.2875
181.112
173.64775
167.1835
163.641
163.130875
164.6645
167.427625
170.095375
171.573375
171.96625
172.30125
173.938875
177.397125
182.4005
188.681625
195.9645
203.442625
210.052125
214.71275
218.698875
223.4845
225.867125
222.7905
218.396
220.723125
231.26525
240.341375
238.017
228.740125
224.726
228.165625
230.813125
233.610125
240.32075
244.33525
240.609125
237.901
236.481
236.46475
236.806125
237.319125
236.961
235.173875
231.24275
225.532875
220.28075
214.626875
206.546375
199.669125
197.306875
195.070375
189.955125
184.760125
181.477875
179.48825
177.864375
176.367
175.46225
173.964
170.819875
166.903375
163.923375
162.923875
163.7845
167.01175
172.667625
179.75925
187.1485
194.521
202.707
211.742
217.757175
216.17405
211.953375
214.36675
224.38325
233.346375
232.219625
223.72625
219.62475
222.752
224.919625
227.9025
235.6635
241.09925
235.08
234.089125
233.7415
234.72975
236.350625
237.6985
237.602375
234.9215
229.361875
223.697625
220.60985
217.1786
211.67
211.204
216.378375
218.41225
216.256375
213.74675
211.901375
208.815875
203.38225
197.386375
192.40625
187.736375
182.05425
175.689
169.696875
165.191625
162.464625